variables="x","y","mut"
zone, t="CFL3D"
 9.701266289E-01 2.499999994E-07 3.420370653E-10
 9.701266289E-01 7.502325730E-07 2.773843910E-08
 9.701266289E-01 1.251163098E-06 2.145569482E-07
 9.701266289E-01 1.753257607E-06 8.272916716E-07
 9.701266289E-01 2.256983180E-06 2.271837957E-06
 9.701266289E-01 2.762808435E-06 5.100990165E-06
 9.701266289E-01 3.271203923E-06 1.002461431E-05
 9.701266289E-01 3.782642807E-06 1.792264629E-05
 9.701266289E-01 4.297600753E-06 2.986111576E-05
 9.701266289E-01 4.816556611E-06 4.711143265E-05
 9.701266289E-01 5.339993095E-06 7.117322821E-05
 9.701266289E-01 5.868397693E-06 1.038010596E-04
 9.701266289E-01 6.402261988E-06 1.470354910E-04
 9.701266289E-01 6.942082109E-06 2.032387711E-04
 9.701266289E-01 7.488360552E-06 2.751359134E-04
 9.701266289E-01 8.041605724E-06 3.658616624E-04
 9.701266289E-01 8.602331945E-06 4.790138628E-04
 9.701266289E-01 9.171060810E-06 6.187142571E-04
 9.701266289E-01 9.748321645E-06 7.896774914E-04
 9.701266289E-01 1.033465105E-05 9.972892003E-04
 9.701266289E-01 1.093059564E-05 1.247694483E-03
 9.701266289E-01 1.153670928E-05 1.547897584E-03
 9.701266289E-01 1.215355496E-05 1.905874349E-03
 9.701266289E-01 1.278170748E-05 2.330700168E-03
 9.701266289E-01 1.342175074E-05 2.832691185E-03
 9.701266289E-01 1.407428044E-05 3.423566930E-03
 9.701266289E-01 1.473990324E-05 4.116630647E-03
 9.701266289E-01 1.541924030E-05 4.926971160E-03
 9.701266289E-01 1.611291918E-05 5.871691741E-03
 9.701266289E-01 1.682159018E-05 6.970164832E-03
 9.701266289E-01 1.754590994E-05 8.244314231E-03
 9.701266289E-01 1.828655331E-05 9.718939662E-03
 9.701266289E-01 1.904420787E-05 1.142206695E-02
 9.701266289E-01 1.981958121E-05 1.338534243E-02
 9.701266289E-01 2.061339183E-05 1.564447768E-02
 9.701266289E-01 2.142637823E-05 1.823973842E-02
 9.701266289E-01 2.225929893E-05 2.121647820E-02
 9.701266289E-01 2.311292883E-05 2.462574095E-02
 9.701266289E-01 2.398805918E-05 2.852491662E-02
 9.701266289E-01 2.488550672E-05 3.297846392E-02
 9.701266289E-01 2.580610453E-05 3.805871308E-02
 9.701266289E-01 2.675071119E-05 4.384671897E-02
 9.701266289E-01 2.772020343E-05 5.043318868E-02
 9.701266289E-01 2.871548350E-05 5.791953206E-02
 9.701266289E-01 2.973747905E-05 6.641893834E-02
 9.701266289E-01 3.078714144E-05 7.605753094E-02
 9.701266289E-01 3.186544200E-05 8.697564900E-02
 9.701266289E-01 3.297338844E-05 9.932913631E-02
 9.701266289E-01 3.411201033E-05 1.132907122E-01
 9.701266289E-01 3.528236630E-05 1.290514022E-01
 9.701266289E-01 3.648554775E-05 1.468220055E-01
 9.701266289E-01 3.772267155E-05 1.668345034E-01
 9.701266289E-01 3.899488729E-05 1.893434823E-01
 9.701266289E-01 4.030338459E-05 2.146275342E-01
 9.701266289E-01 4.164937127E-05 2.429905385E-01
 9.701266289E-01 4.303410969E-05 2.747626305E-01
 9.701266289E-01 4.445888044E-05 3.103012741E-01
 9.701266289E-01 4.592501136E-05 3.499916196E-01
 9.701266289E-01 4.743386671E-05 3.942469060E-01
 9.701266289E-01 4.898685074E-05 4.435081482E-01
 9.701266289E-01 5.058540773E-05 4.982433021E-01
 9.701266289E-01 5.223102562E-05 5.589460731E-01
 9.701266289E-01 5.392523599E-05 6.261335611E-01
 9.701266289E-01 5.566961045E-05 7.003434896E-01
 9.701266289E-01 5.746577517E-05 7.821305990E-01
 9.701266289E-01 5.931540363E-05 8.720620871E-01
 9.701266289E-01 6.122021296E-05 9.707118273E-01
 9.701266289E-01 6.318197120E-05 1.078654528E+00
 9.701266289E-01 6.520251191E-05 1.196458459E+00
 9.701266289E-01 6.728371227E-05 1.324677825E+00
 9.701266289E-01 6.942750770E-05 1.463844419E+00
 9.701266289E-01 7.163589180E-05 1.614459515E+00
 9.701266289E-01 7.391091640E-05 1.776984811E+00
 9.701266289E-01 7.625470607E-05 1.951834917E+00
 9.701266289E-01 7.866942906E-05 2.139369488E+00
 9.701266289E-01 8.115734818E-05 2.339886189E+00
 9.701266289E-01 8.372076263E-05 2.553615808E+00
 9.701266289E-01 8.636206621E-05 2.780718088E+00
 9.701266289E-01 8.908371092E-05 3.021279812E+00
 9.701266289E-01 9.188822878E-05 3.275314093E+00
 9.701266289E-01 9.477823914E-05 3.542762280E+00
 9.701266289E-01 9.775641956E-05 3.823498487E+00
 9.701266289E-01 1.008255422E-04 4.117334366E+00
 9.701266289E-01 1.039884592E-04 4.424026489E+00
 9.701266289E-01 1.072481246E-04 4.743286133E+00
 9.701266289E-01 1.106075651E-04 5.074786663E+00
 9.701266289E-01 1.140699023E-04 5.418178558E+00
 9.701266289E-01 1.176383594E-04 5.773095608E+00
 9.701266289E-01 1.213162541E-04 6.139167786E+00
 9.701266289E-01 1.251070062E-04 6.516033173E+00
 9.701266289E-01 1.290141663E-04 6.903344631E+00
 9.701266289E-01 1.330413361E-04 7.300781727E+00
 9.701266289E-01 1.371922699E-04 7.708054543E+00
 9.701266289E-01 1.414708386E-04 8.124914169E+00
 9.701266289E-01 1.458810293E-04 8.551155090E+00
 9.701266289E-01 1.504269312E-04 8.986620903E+00
 9.701266289E-01 1.551127643E-04 9.431203842E+00
 9.701266289E-01 1.599429088E-04 9.884848595E+00
 9.701266289E-01 1.649218466E-04 1.034755230E+01
 9.701266289E-01 1.700542198E-04 1.081936264E+01
 9.701266289E-01 1.753448014E-04 1.130037975E+01
 9.701266289E-01 1.807984954E-04 1.179075050E+01
 9.701266289E-01 1.864203950E-04 1.229066753E+01
 9.701266289E-01 1.922157098E-04 1.280036831E+01
 9.701266289E-01 1.981898677E-04 1.332013035E+01
 9.701266289E-01 2.043483837E-04 1.385026836E+01
 9.701266289E-01 2.106970205E-04 1.439113235E+01
 9.701266289E-01 2.172416571E-04 1.494310474E+01
 9.701266289E-01 2.239884052E-04 1.550659561E+01
 9.701266289E-01 2.309435367E-04 1.608204269E+01
 9.701266289E-01 2.381135128E-04 1.666990852E+01
 9.701266289E-01 2.455050126E-04 1.727067566E+01
 9.701266289E-01 2.531248902E-04 1.788484573E+01
 9.701266289E-01 2.609802759E-04 1.851294327E+01
 9.701266289E-01 2.690784459E-04 1.915549850E+01
 9.701266289E-01 2.774269378E-04 1.981306648E+01
 9.701266289E-01 2.860335226E-04 2.048620796E+01
 9.701266289E-01 2.949062036E-04 2.117549896E+01
 9.701266289E-01 3.040532465E-04 2.188152504E+01
 9.701266289E-01 3.134831495E-04 2.260488510E+01
 9.701266289E-01 3.232046729E-04 2.334617615E+01
 9.701266289E-01 3.332268971E-04 2.410601616E+01
 9.701266289E-01 3.435591352E-04 2.488501930E+01
 9.701266289E-01 3.542109625E-04 2.568381500E+01
 9.701266289E-01 3.651923325E-04 2.650302887E+01
 9.701266289E-01 3.765134607E-04 2.734329987E+01
 9.701266289E-01 3.881848534E-04 2.820526505E+01
 9.701266289E-01 4.002173664E-04 2.908956909E+01
 9.701266289E-01 4.126222047E-04 2.999686050E+01
 9.701266289E-01 4.254109226E-04 3.092778587E+01
 9.701266289E-01 4.385953944E-04 3.188299561E+01
 9.701266289E-01 4.521879018E-04 3.286314011E+01
 9.701266289E-01 4.662010761E-04 3.386887360E+01
 9.701266289E-01 4.806479556E-04 3.490084457E+01
 9.701266289E-01 4.955420154E-04 3.595970154E+01
 9.701266289E-01 5.108970799E-04 3.704609680E+01
 9.701266289E-01 5.267274100E-04 3.816066360E+01
 9.701266289E-01 5.430477904E-04 3.930405045E+01
 9.701266289E-01 5.598733551E-04 4.047688293E+01
 9.701266289E-01 5.772197619E-04 4.167978668E+01
 9.701266289E-01 5.951031926E-04 4.291337967E+01
 9.701266289E-01 6.135402364E-04 4.417827225E+01
 9.701266289E-01 6.325480645E-04 4.547505188E+01
 9.701266289E-01 6.521443138E-04 4.680430984E+01
 9.701266289E-01 6.723473198E-04 4.816661453E+01
 9.701266289E-01 6.931758253E-04 4.956251526E+01
 9.701266289E-01 7.146491553E-04 5.099254608E+01
 9.701266289E-01 7.367873332E-04 5.245722198E+01
 9.701266289E-01 7.596109645E-04 5.395703506E+01
 9.701266289E-01 7.831412950E-04 5.549245834E+01
 9.701266289E-01 8.074001526E-04 5.706393433E+01
 9.701266289E-01 8.324101800E-04 5.867187500E+01
 9.701266289E-01 8.581946022E-04 6.031666946E+01
 9.701266289E-01 8.847774006E-04 6.199867249E+01
 9.701266289E-01 9.121833136E-04 6.371820068E+01
 9.701266289E-01 9.404378361E-04 6.547554016E+01
 9.701266289E-01 9.695672779E-04 6.727093506E+01
 9.701266289E-01 9.995986475E-04 6.910458374E+01
 9.701266289E-01 1.030560001E-03 7.097665405E+01
 9.701266289E-01 1.062480151E-03 7.288723755E+01
 9.701266289E-01 1.095388667E-03 7.483643341E+01
 9.701266289E-01 1.129316282E-03 7.682423401E+01
 9.701266289E-01 1.164294430E-03 7.885059357E+01
 9.701266289E-01 1.200355822E-03 8.091543579E+01
 9.701266289E-01 1.237533870E-03 8.301860046E+01
 9.701266289E-01 1.275863266E-03 8.515987396E+01
 9.701266289E-01 1.315379515E-03 8.733898163E+01
 9.701266289E-01 1.356119523E-03 8.955557251E+01
 9.701266289E-01 1.398121123E-03 9.180924225E+01
 9.701266289E-01 1.441423432E-03 9.409951019E+01
 9.701266289E-01 1.486066729E-03 9.642581177E+01
 9.701266289E-01 1.532092574E-03 9.878749847E+01
 9.701266289E-01 1.579543576E-03 1.011838837E+02
 9.701266289E-01 1.628464204E-03 1.036141510E+02
 9.701266289E-01 1.678899745E-03 1.060774002E+02
 9.701266289E-01 1.730897231E-03 1.085726700E+02
 9.701266289E-01 1.784504857E-03 1.110988770E+02
 9.701266289E-01 1.839772798E-03 1.136548462E+02
 9.701266289E-01 1.896752161E-03 1.162392960E+02
 9.701266289E-01 1.955496147E-03 1.188508377E+02
 9.701266289E-01 2.016059356E-03 1.214879684E+02
 9.701266289E-01 2.078498015E-03 1.241490784E+02
 9.701266289E-01 2.142870566E-03 1.268324051E+02
 9.701266289E-01 2.209236380E-03 1.295360870E+02
 9.701266289E-01 2.277657622E-03 1.322580872E+02
 9.701266289E-01 2.348197857E-03 1.349962769E+02
 9.701266289E-01 2.420922508E-03 1.377483215E+02
 9.701266289E-01 2.495899564E-03 1.405117798E+02
 9.701266289E-01 2.573198406E-03 1.432839966E+02
 9.701266289E-01 2.652890980E-03 1.460621796E+02
 9.701266289E-01 2.735051792E-03 1.488433380E+02
 9.701266289E-01 2.819756977E-03 1.516242828E+02
 9.701266289E-01 2.907085465E-03 1.544016571E+02
 9.701266289E-01 2.997118514E-03 1.571718445E+02
 9.701266289E-01 3.089939710E-03 1.599310303E+02
 9.701266289E-01 3.185635433E-03 1.626752014E+02
 9.701266289E-01 3.284294857E-03 1.654000397E+02
 9.701266289E-01 3.386009717E-03 1.681009979E+02
 9.701266289E-01 3.490874544E-03 1.707733002E+02
 9.701266289E-01 3.598987125E-03 1.734118652E+02
 9.701266289E-01 3.710447578E-03 1.760113068E+02
 9.701266289E-01 3.825360211E-03 1.785659332E+02
 9.701266289E-01 3.943831660E-03 1.810697632E+02
 9.701266289E-01 4.065971822E-03 1.835164795E+02
 9.701266289E-01 4.191894550E-03 1.858994141E+02
 9.701266289E-01 4.321717191E-03 1.882115021E+02
 9.701266289E-01 4.455560353E-03 1.904453583E+02
 9.701266289E-01 4.593548831E-03 1.925931854E+02
 9.701266289E-01 4.735810217E-03 1.946467743E+02
 9.701266289E-01 4.882477690E-03 1.965974884E+02
 9.701266289E-01 5.033687688E-03 1.984362335E+02
 9.701266289E-01 5.189579912E-03 2.001534729E+02
 9.701266289E-01 5.350300577E-03 2.017392120E+02
 9.701266289E-01 5.515998229E-03 2.031829376E+02
 9.701266289E-01 5.686827935E-03 2.044736023E+02
 9.701266289E-01 5.862948019E-03 2.055996704E+02
 9.701266289E-01 6.044522393E-03 2.065489960E+02
 9.701266289E-01 6.231720094E-03 2.073089142E+02
 9.701266289E-01 6.424714811E-03 2.078661499E+02
 9.701266289E-01 6.623687223E-03 2.082068329E+02
 9.701266289E-01 6.828821264E-03 2.083164520E+02
 9.701266289E-01 7.040308323E-03 2.081798706E+02
 9.701266289E-01 7.258344907E-03 2.077812958E+02
 9.701266289E-01 7.483134046E-03 2.071042786E+02
 9.701266289E-01 7.714885287E-03 2.061316986E+02
 9.701266289E-01 7.953813300E-03 2.048457489E+02
 9.701266289E-01 8.200140670E-03 2.032279663E+02
 9.701266289E-01 8.454097435E-03 2.012592316E+02
 9.701266289E-01 8.715918288E-03 1.989197388E+02
 9.701266289E-01 8.985848166E-03 1.961890869E+02
 9.701266289E-01 9.264137596E-03 1.930463104E+02
 9.701266289E-01 9.551045485E-03 1.894698486E+02
 9.701266289E-01 9.846839122E-03 1.854377594E+02
 9.701266289E-01 1.015179232E-02 1.809277039E+02
 9.701266289E-01 1.046619099E-02 1.759170837E+02
 9.701266289E-01 1.079032570E-02 1.703832855E+02
 9.701266289E-01 1.112449914E-02 1.643038330E+02
 9.701266289E-01 1.146902237E-02 1.576566162E+02
 9.701266289E-01 1.182421483E-02 1.504203491E+02
 9.701266289E-01 1.219040714E-02 1.425749359E+02
 9.701266289E-01 1.256794017E-02 1.341020813E+02
 9.701266289E-01 1.295716595E-02 1.249860077E+02
 9.701266289E-01 1.335844584E-02 1.152145157E+02
 9.701266289E-01 1.377215330E-02 1.047803040E+02
 9.701266289E-01 1.419867296E-02 9.368291473E+01
 9.701266289E-01 1.463840157E-02 8.193164825E+01
 9.701266289E-01 1.509174798E-02 6.955043793E+01
 9.701266289E-01 1.555913500E-02 5.658665848E+01
 9.701266289E-01 1.604099758E-02 4.313014603E+01
 9.701266289E-01 1.653778180E-02 2.936036110E+01
 9.701266289E-01 1.704995334E-02 1.571361065E+01
 9.701266289E-01 1.757798530E-02 4.168752670E+00
 9.701266289E-01 1.812236942E-02 5.163979530E-01
 9.701266289E-01 1.868361421E-02 2.279751897E-01
 9.701266289E-01 1.926223934E-02 2.027437240E-01
 9.701266289E-01 1.985878497E-02 2.006401122E-01
 9.701266289E-01 2.047380619E-02 2.009635717E-01
 9.701266289E-01 2.110787295E-02 2.015091181E-01
 9.701266289E-01 2.176157758E-02 2.020456791E-01
 9.701266289E-01 2.243552729E-02 2.025518417E-01
 9.701266289E-01 2.313034981E-02 2.030273378E-01
 9.701266289E-01 2.384668961E-02 2.034738660E-01
 9.701266289E-01 2.458521351E-02 2.038932145E-01
 9.701266289E-01 2.534661070E-02 2.042870373E-01
 9.701266289E-01 2.613158710E-02 2.046569288E-01
 9.701266289E-01 2.694087476E-02 2.050043344E-01
 9.701266289E-01 2.777522430E-02 2.053306550E-01
 9.701266289E-01 2.863541432E-02 2.056371868E-01
 9.701266289E-01 2.952224575E-02 2.059251368E-01
 9.701266289E-01 3.043654002E-02 2.061956674E-01
 9.701266289E-01 3.137915209E-02 2.064498365E-01
 9.701266289E-01 3.235095367E-02 2.066886425E-01
 9.701266289E-01 3.335285187E-02 2.069130242E-01
 9.701266289E-01 3.438577801E-02 2.071239054E-01
 9.701266289E-01 3.545069695E-02 2.073220611E-01
 9.701266289E-01 3.654859215E-02 2.075082958E-01
 9.701266289E-01 3.768049181E-02 2.076833248E-01
 9.701266289E-01 3.884744644E-02 2.078478634E-01
 9.701266289E-01 4.005054012E-02 2.080025226E-01
 9.701266289E-01 4.129089043E-02 2.081479132E-01
 9.701266289E-01 4.256965965E-02 2.082846016E-01
 9.701266289E-01 4.388802871E-02 2.084131092E-01
 9.701266289E-01 4.524722695E-02 2.085339427E-01
 9.701266289E-01 4.664851725E-02 2.086475790E-01
 9.701266289E-01 4.809320718E-02 2.087544650E-01
 9.701266289E-01 4.958264157E-02 2.088550031E-01
 9.701266289E-01 5.111819878E-02 2.089495510E-01
 9.701266289E-01 5.270131305E-02 2.090384811E-01
 9.701266289E-01 5.433345586E-02 2.091221362E-01
 9.701266289E-01 5.601614714E-02 2.092008293E-01
 9.701266289E-01 5.775095150E-02 2.092748582E-01
 9.701266289E-01 5.953947827E-02 2.093445063E-01
 9.701266289E-01 6.138340011E-02 2.094100416E-01
 9.701266289E-01 6.328442693E-02 2.094717026E-01
 9.701266289E-01 6.524432451E-02 2.095297426E-01
 9.701266289E-01 6.726492196E-02 2.095843554E-01
 9.701266289E-01 6.934808940E-02 2.096357644E-01
 9.701266289E-01 7.149577886E-02 2.096841633E-01
 9.701266289E-01 7.370998710E-02 2.097297162E-01
 9.701266289E-01 7.599275559E-02 2.097726017E-01
 9.701266289E-01 7.834623009E-02 2.098129690E-01
 9.701266289E-01 8.077258617E-02 2.098509967E-01
 9.701266289E-01 8.327408880E-02 2.098867893E-01
 9.701266289E-01 8.585306257E-02 2.099205106E-01
 9.701266289E-01 8.851190656E-02 2.099522650E-01
 9.701266289E-01 9.125309438E-02 2.099821717E-01
 9.701266289E-01 9.407917410E-02 2.100103498E-01
 9.701266289E-01 9.699277580E-02 2.100368738E-01
 9.701266289E-01 9.999661148E-02 2.100618780E-01
 9.701266289E-01 1.030934751E-01 2.100854367E-01
 9.701266289E-01 1.062862501E-01 2.101076394E-01
 9.701266289E-01 1.095779017E-01 2.101285458E-01
 9.701266289E-01 1.129714921E-01 2.101482749E-01
 9.701266289E-01 1.164701879E-01 2.101668417E-01
 9.701266289E-01 1.200772300E-01 2.101843506E-01
 9.701266289E-01 1.237959862E-01 2.102008611E-01
 9.701266289E-01 1.276299059E-01 2.102164179E-01
 9.701266289E-01 1.315825731E-01 2.102310956E-01
 9.701266289E-01 1.356576383E-01 2.102449238E-01
 9.701266289E-01 1.398589164E-01 2.102579772E-01
 9.701266289E-01 1.441902965E-01 2.102702707E-01
 9.701266289E-01 1.486558318E-01 2.102818638E-01
 9.701266289E-01 1.532596499E-01 2.102928162E-01
 9.701266289E-01 1.580060571E-01 2.103031427E-01
 9.701266289E-01 1.628994495E-01 2.103128731E-01
 9.701266289E-01 1.679444015E-01 2.103220522E-01
 9.701266289E-01 1.731455922E-01 2.103307247E-01
 9.701266289E-01 1.785078496E-01 2.103388906E-01
 9.701266289E-01 1.840361804E-01 2.103466094E-01
 9.701266289E-01 1.897357255E-01 2.103538960E-01
 9.701266289E-01 1.956117898E-01 2.103607655E-01
 9.701266289E-01 2.016698271E-01 2.103672475E-01
 9.701266289E-01 2.079154700E-01 2.103733569E-01
 9.701266289E-01 2.143545449E-01 2.103791386E-01
 9.701266289E-01 2.209930420E-01 2.103845924E-01
 9.701266289E-01 2.278371304E-01 2.103897482E-01
 9.701266289E-01 2.348931730E-01 2.103946060E-01
 9.701266289E-01 2.421677411E-01 2.103991807E-01
 9.701266289E-01 2.496675998E-01 2.104035467E-01
 9.701266289E-01 2.573997378E-01 2.104076594E-01
 9.701266289E-01 2.653713226E-01 2.104115486E-01
 9.701266289E-01 2.735897899E-01 2.104152143E-01
 9.701266289E-01 2.820627689E-01 2.104186714E-01
 9.701266289E-01 2.907981873E-01 2.104219347E-01
 9.701266289E-01 2.998040915E-01 2.104250044E-01
 9.701266289E-01 3.090889454E-01 2.104279250E-01
 9.701266289E-01 3.186613321E-01 2.104306668E-01
 9.701266289E-01 3.285301626E-01 2.104332596E-01
 9.701266289E-01 3.387046456E-01 2.104357183E-01
 9.701266289E-01 3.491942286E-01 2.104380280E-01
 9.701266289E-01 3.600086570E-01 2.104402184E-01
 9.701266289E-01 3.711580336E-01 2.104422897E-01
 9.701266289E-01 3.826526701E-01 2.104442418E-01
 9.701266289E-01 3.945032954E-01 2.104460895E-01
 9.701266289E-01 4.067209363E-01 2.104478478E-01
 9.701266289E-01 4.193169773E-01 2.104495019E-01
 9.701266289E-01 4.323030710E-01 2.104510814E-01
 9.701266289E-01 4.456913769E-01 2.104525566E-01
 9.701266289E-01 4.594942927E-01 2.104539722E-01
 9.701266289E-01 4.737246931E-01 2.104553133E-01
 9.701266289E-01 4.883958101E-01 2.104565799E-01
 9.701266289E-01 5.035212636E-01 2.104577720E-01
 9.701266289E-01 5.191151500E-01 2.104589194E-01
 9.701266289E-01 5.351920128E-01 2.104600072E-01
 9.701266289E-01 5.517667532E-01 2.104610354E-01
 9.701266289E-01 5.688547492E-01 2.104620039E-01
 9.701266289E-01 5.864720345E-01 2.104629278E-01
 9.701266289E-01 6.046348810E-01 2.104638070E-01
 9.701266289E-01 6.233602166E-01 2.104646415E-01
 9.701266289E-01 6.426655054E-01 2.104654461E-01
 9.701266289E-01 6.625686884E-01 2.104662210E-01
 9.701266289E-01 6.830881834E-01 2.104669511E-01
 9.701266289E-01 7.042432427E-01 2.104676664E-01
 9.701266289E-01 7.260534167E-01 2.104683518E-01
 9.701266289E-01 7.485390902E-01 2.104689926E-01
 9.701266289E-01 7.717211246E-01 2.104697376E-01
 9.701266289E-01 7.956210375E-01 2.104702741E-01
 9.701266289E-01 8.202611804E-01 2.104715109E-01
 9.701266289E-01 8.456644416E-01 2.104715407E-01
 9.701266289E-01 8.718544245E-01 2.104787380E-01
 9.701266289E-01 8.988554478E-01 2.104789764E-01
 9.701266289E-01 9.266927242E-01 2.104970217E-01
 9.701266289E-01 9.553921223E-01 2.104932666E-01
 9.701266289E-01 9.849802852E-01 2.105229646E-01
zone, t="FUN3D"
 9.700000000E-01 0.000000000E+00 0.000000000E+00
 9.700000000E-01 5.000000001E-07 5.479368384E-09
 9.700000000E-01 1.000465155E-06 8.783395880E-08
 9.700000000E-01 1.501861053E-06 4.460426689E-07
 9.700000000E-01 2.004654148E-06 1.415847269E-06
 9.700000000E-01 2.509312193E-06 3.475974934E-06
 9.700000000E-01 3.016304676E-06 7.256975731E-06
 9.700000000E-01 3.526103259E-06 1.355280781E-05
 9.700000000E-01 4.039182211E-06 2.333534461E-05
 9.700000000E-01 4.556018856E-06 3.777202212E-05
 9.700000000E-01 5.077094012E-06 5.824689092E-05
 9.700000000E-01 5.602892439E-06 8.638538768E-05
 9.700000000E-01 6.133903295E-06 1.240831950E-04
 9.700000000E-01 6.670620584E-06 1.735396173E-04
 9.700000000E-01 7.213543618E-06 2.372959640E-04
 9.700000000E-01 7.763177486E-06 3.182795029E-04
 9.700000000E-01 8.320033518E-06 4.198536218E-04
 9.700000000E-01 8.884629761E-06 5.458749220E-04
 9.700000000E-01 9.457491465E-06 7.007580607E-04
 9.700000000E-01 1.003915157E-05 8.895492605E-04
 9.700000000E-01 1.063015120E-05 1.118009515E-03
 9.700000000E-01 1.123104017E-05 1.392708648E-03
 9.700000000E-01 1.184237749E-05 1.721131507E-03
 9.700000000E-01 1.246473189E-05 2.111797727E-03
 9.700000000E-01 1.309868236E-05 2.574396664E-03
 9.700000000E-01 1.374481867E-05 3.119939251E-03
 9.700000000E-01 1.440374193E-05 3.760928722E-03
 9.700000000E-01 1.507606513E-05 4.511552376E-03
 9.700000000E-01 1.576241375E-05 5.387896696E-03
 9.700000000E-01 1.646342630E-05 6.408188437E-03
 9.700000000E-01 1.717975495E-05 7.593064457E-03
 9.700000000E-01 1.791206609E-05 8.965873357E-03
 9.700000000E-01 1.866104102E-05 1.055301218E-02
 9.700000000E-01 1.942737650E-05 1.238430167E-02
 9.700000000E-01 2.021178547E-05 1.449340389E-02
 9.700000000E-01 2.101499767E-05 1.691828600E-02
 9.700000000E-01 2.183776033E-05 1.970173436E-02
 9.700000000E-01 2.268083889E-05 2.289192321E-02
 9.700000000E-01 2.354501766E-05 2.654304200E-02
 9.700000000E-01 2.443110060E-05 3.071598578E-02
 9.700000000E-01 2.533991204E-05 3.547911253E-02
 9.700000000E-01 2.627229746E-05 4.090907113E-02
 9.700000000E-01 2.722912427E-05 4.709170323E-02
 9.700000000E-01 2.821128261E-05 5.412302138E-02
 9.700000000E-01 2.921968619E-05 6.211026462E-02
 9.700000000E-01 3.025527315E-05 7.117303166E-02
 9.700000000E-01 3.131900689E-05 8.144448936E-02
 9.700000000E-01 3.241187703E-05 9.307265236E-02
 9.700000000E-01 3.353490026E-05 1.062217264E-01
 9.700000000E-01 3.468912136E-05 1.210735043E-01
 9.700000000E-01 3.587561410E-05 1.378287995E-01
 9.700000000E-01 3.709548228E-05 1.567088958E-01
 9.700000000E-01 3.834986078E-05 1.779569886E-01
 9.700000000E-01 3.963991653E-05 2.018395817E-01
 9.700000000E-01 4.096684971E-05 2.286478017E-01
 9.700000000E-01 4.233189477E-05 2.586985790E-01
 9.700000000E-01 4.373632161E-05 2.923356395E-01
 9.700000000E-01 4.518143681E-05 3.299302411E-01
 9.700000000E-01 4.666858475E-05 3.718815813E-01
 9.700000000E-01 4.819914896E-05 4.186167968E-01
 9.700000000E-01 4.977455332E-05 4.705904700E-01
 9.700000000E-01 5.139626346E-05 5.282835571E-01
 9.700000000E-01 5.306578807E-05 5.922016519E-01
 9.700000000E-01 5.478468032E-05 6.628725106E-01
 9.700000000E-01 5.655453931E-05 7.408427694E-01
 9.700000000E-01 5.837701157E-05 8.266738110E-01
 9.700000000E-01 6.025379256E-05 9.209367585E-01
 9.700000000E-01 6.218662827E-05 1.024206607E+00
 9.700000000E-01 6.417731683E-05 1.137055545E+00
 9.700000000E-01 6.622771021E-05 1.260045560E+00
 9.700000000E-01 6.833971589E-05 1.393720464E+00
 9.700000000E-01 7.051529871E-05 1.538597546E+00
 9.700000000E-01 7.275648264E-05 1.695159063E+00
 9.700000000E-01 7.506535266E-05 1.863843875E+00
 9.700000000E-01 7.744405674E-05 2.045039504E+00
 9.700000000E-01 7.989480782E-05 2.239074972E+00
 9.700000000E-01 8.241988585E-05 2.446214707E+00
 9.700000000E-01 8.502163994E-05 2.666653853E+00
 9.700000000E-01 8.770249053E-05 2.900515217E+00
 9.700000000E-01 9.046493164E-05 3.147848082E+00
 9.700000000E-01 9.331153320E-05 3.408628989E+00
 9.700000000E-01 9.624494343E-05 3.682764528E+00
 9.700000000E-01 9.926789131E-05 3.970096099E+00
 9.700000000E-01 1.023831891E-04 4.270406456E+00
 9.700000000E-01 1.055937351E-04 4.583427835E+00
 9.700000000E-01 1.089025159E-04 4.908851334E+00
 9.700000000E-01 1.123126099E-04 5.246337192E+00
 9.700000000E-01 1.158271895E-04 5.595525593E+00
 9.700000000E-01 1.194495242E-04 5.956047599E+00
 9.700000000E-01 1.231829841E-04 6.327535840E+00
 9.700000000E-01 1.270310424E-04 6.709634634E+00
 9.700000000E-01 1.309972789E-04 7.102009257E+00
 9.700000000E-01 1.350853835E-04 7.504354149E+00
 9.700000000E-01 1.392991595E-04 7.916399905E+00
 9.700000000E-01 1.436425268E-04 8.337918972E+00
 9.700000000E-01 1.481195263E-04 8.768730037E+00
 9.700000000E-01 1.527343229E-04 9.208701127E+00
 9.700000000E-01 1.574912098E-04 9.657751523E+00
 9.700000000E-01 1.623946124E-04 1.011585257E+01
 9.700000000E-01 1.674490923E-04 1.058302755E+01
 9.700000000E-01 1.726593518E-04 1.105935075E+01
 9.700000000E-01 1.780302381E-04 1.154494582E+01
 9.700000000E-01 1.835667477E-04 1.203998373E+01
 9.700000000E-01 1.892740313E-04 1.254468023E+01
 9.700000000E-01 1.951573985E-04 1.305929310E+01
 9.700000000E-01 2.012223227E-04 1.358411932E+01
 9.700000000E-01 2.074744460E-04 1.411949209E+01
 9.700000000E-01 2.139195848E-04 1.466577789E+01
 9.700000000E-01 2.205637353E-04 1.522337370E+01
 9.700000000E-01 2.274130784E-04 1.579270421E+01
 9.700000000E-01 2.344739863E-04 1.637421931E+01
 9.700000000E-01 2.417530277E-04 1.696839164E+01
 9.700000000E-01 2.492569744E-04 1.757571447E+01
 9.700000000E-01 2.569928074E-04 1.819669960E+01
 9.700000000E-01 2.649677234E-04 1.883187558E+01
 9.700000000E-01 2.731891416E-04 1.948178605E+01
 9.700000000E-01 2.816647104E-04 2.014698823E+01
 9.700000000E-01 2.904023148E-04 2.082805164E+01
 9.700000000E-01 2.994100835E-04 2.152555686E+01
 9.700000000E-01 3.086963964E-04 2.224009449E+01
 9.700000000E-01 3.182698926E-04 2.297226417E+01
 9.700000000E-01 3.281394786E-04 2.372267374E+01
 9.700000000E-01 3.383143362E-04 2.449193840E+01
 9.700000000E-01 3.488039309E-04 2.528068000E+01
 9.700000000E-01 3.596180216E-04 2.608952635E+01
 9.700000000E-01 3.707666685E-04 2.691911054E+01
 9.700000000E-01 3.822602435E-04 2.777007028E+01
 9.700000000E-01 3.941094390E-04 2.864304732E+01
 9.700000000E-01 4.063252786E-04 2.953868672E+01
 9.700000000E-01 4.189191268E-04 3.045763626E+01
 9.700000000E-01 4.319026996E-04 3.140054572E+01
 9.700000000E-01 4.452880760E-04 3.236806616E+01
 9.700000000E-01 4.590877084E-04 3.336084916E+01
 9.700000000E-01 4.733144347E-04 3.437954605E+01
 9.700000000E-01 4.879814904E-04 3.542480696E+01
 9.700000000E-01 5.031025201E-04 3.649728000E+01
 9.700000000E-01 5.186915913E-04 3.759761020E+01
 9.700000000E-01 5.347632065E-04 3.872643847E+01
 9.700000000E-01 5.513323174E-04 3.988440050E+01
 9.700000000E-01 5.684143384E-04 4.107212553E+01
 9.700000000E-01 5.860251610E-04 4.229023509E+01
 9.700000000E-01 6.041811688E-04 4.353934163E+01
 9.700000000E-01 6.228992525E-04 4.482004708E+01
 9.700000000E-01 6.421968257E-04 4.613294139E+01
 9.700000000E-01 6.620918412E-04 4.747860086E+01
 9.700000000E-01 6.826028075E-04 4.885758654E+01
 9.700000000E-01 7.037488061E-04 5.027044245E+01
 9.700000000E-01 7.255495094E-04 5.171769379E+01
 9.700000000E-01 7.480251988E-04 5.319984506E+01
 9.700000000E-01 7.711967837E-04 5.471737809E+01
 9.700000000E-01 7.950858208E-04 5.627075007E+01
 9.700000000E-01 8.197145343E-04 5.786039144E+01
 9.700000000E-01 8.451058367E-04 5.948670382E+01
 9.700000000E-01 8.712833496E-04 6.115005782E+01
 9.700000000E-01 8.982714263E-04 6.285079084E+01
 9.700000000E-01 9.260951740E-04 6.458920483E+01
 9.700000000E-01 9.547804775E-04 6.636556399E+01
 9.700000000E-01 9.843540231E-04 6.818009249E+01
 9.700000000E-01 1.014843323E-03 7.003297211E+01
 9.700000000E-01 1.046276742E-03 7.192433990E+01
 9.700000000E-01 1.078683524E-03 7.385428577E+01
 9.700000000E-01 1.112093815E-03 7.582285007E+01
 9.700000000E-01 1.146538699E-03 7.783002119E+01
 9.700000000E-01 1.182050219E-03 7.987573305E+01
 9.700000000E-01 1.218661412E-03 8.195986262E+01
 9.700000000E-01 1.256406339E-03 8.408222740E+01
 9.700000000E-01 1.295320114E-03 8.624258279E+01
 9.700000000E-01 1.335438937E-03 8.844061945E+01
 9.700000000E-01 1.376800134E-03 9.067596061E+01
 9.700000000E-01 1.419442181E-03 9.294815926E+01
 9.700000000E-01 1.463404750E-03 9.525669525E+01
 9.700000000E-01 1.508728740E-03 9.760097229E+01
 9.700000000E-01 1.555456315E-03 9.998031481E+01
 9.700000000E-01 1.603630947E-03 1.023939647E+02
 9.700000000E-01 1.653297453E-03 1.048410777E+02
 9.700000000E-01 1.704502039E-03 1.073207202E+02
 9.700000000E-01 1.757292340E-03 1.098318649E+02
 9.700000000E-01 1.811717468E-03 1.123733868E+02
 9.700000000E-01 1.867828056E-03 1.149440594E+02
 9.700000000E-01 1.925676303E-03 1.175425494E+02
 9.700000000E-01 1.985316026E-03 1.201674126E+02
 9.700000000E-01 2.046802709E-03 1.228170880E+02
 9.700000000E-01 2.110193553E-03 1.254898929E+02
 9.700000000E-01 2.175547532E-03 1.281840170E+02
 9.700000000E-01 2.242925446E-03 1.308975161E+02
 9.700000000E-01 2.312389975E-03 1.336283057E+02
 9.700000000E-01 2.384005744E-03 1.363741544E+02
 9.700000000E-01 2.457839379E-03 1.391326764E+02
 9.700000000E-01 2.533959566E-03 1.419013239E+02
 9.700000000E-01 2.612437122E-03 1.446773795E+02
 9.700000000E-01 2.693345054E-03 1.474579476E+02
 9.700000000E-01 2.776758633E-03 1.502399458E+02
 9.700000000E-01 2.862755459E-03 1.530200953E+02
 9.700000000E-01 2.951415535E-03 1.557949122E+02
 9.700000000E-01 3.042821343E-03 1.585606969E+02
 9.700000000E-01 3.137057920E-03 1.613135238E+02
 9.700000000E-01 3.234212933E-03 1.640492311E+02
 9.700000000E-01 3.334376767E-03 1.667634087E+02
 9.700000000E-01 3.437642606E-03 1.694513876E+02
 9.700000000E-01 3.544106519E-03 1.721082271E+02
 9.700000000E-01 3.653867550E-03 1.747287025E+02
 9.700000000E-01 3.767027811E-03 1.773072926E+02
 9.700000000E-01 3.883692577E-03 1.798381659E+02
 9.700000000E-01 4.003970382E-03 1.823151670E+02
 9.700000000E-01 4.127973121E-03 1.847318020E+02
 9.700000000E-01 4.255816156E-03 1.870812244E+02
 9.700000000E-01 4.387618419E-03 1.893562194E+02
 9.700000000E-01 4.523502529E-03 1.915491883E+02
 9.700000000E-01 4.663594900E-03 1.936521325E+02
 9.700000000E-01 4.808025860E-03 1.956566371E+02
 9.700000000E-01 4.956929776E-03 1.975538532E+02
 9.700000000E-01 5.110445174E-03 1.993344816E+02
 9.700000000E-01 5.268714871E-03 2.009887538E+02
 9.700000000E-01 5.431886107E-03 2.025064148E+02
 9.700000000E-01 5.600110683E-03 2.038767044E+02
 9.700000000E-01 5.773545098E-03 2.050883386E+02
 9.700000000E-01 5.952350701E-03 2.061294909E+02
 9.700000000E-01 6.136693837E-03 2.069877743E+02
 9.700000000E-01 6.326746002E-03 2.076502223E+02
 9.700000000E-01 6.522684003E-03 2.081032718E+02
 9.700000000E-01 6.724690123E-03 2.083327457E+02
 9.700000000E-01 6.932952291E-03 2.083238372E+02
 9.700000000E-01 7.147664256E-03 2.080610954E+02
 9.700000000E-01 7.369025765E-03 2.075284131E+02
 9.700000000E-01 7.597242754E-03 2.067090173E+02
 9.700000000E-01 7.832527535E-03 2.055854631E+02
 9.700000000E-01 8.075098997E-03 2.041396324E+02